Program Version,EnergyPlus, Version 23.1.0-87ed9199d4, YMD=2026.05.25 23:03
1,5,Environment Title[],Latitude[deg],Longitude[deg],Time Zone[],Elevation[m]
2,8,Day of Simulation[],Month[],Day of Month[],DST Indicator[1=yes 0=no],Hour[],StartMinute[],EndMinute[],DayType
3,5,Cumulative Day of Simulation[],Month[],Day of Month[],DST Indicator[1=yes 0=no],DayType  ! When Daily Report Variables Requested
4,2,Cumulative Days of Simulation[],Month[]  ! When Monthly Report Variables Requested
5,1,Cumulative Days of Simulation[] ! When Run Period Report Variables Requested
6,1,Calendar Year of Simulation[] ! When Annual Report Variables Requested
313,1,BLOCK 3 RESIDENTIAL_2 STOREY 0,Zone Lights Electricity Energy [J] !Hourly
314,1,BLOCK 3 RESIDENTIAL_2 STOREY 1,Zone Lights Electricity Energy [J] !Hourly
315,1,BLOCK 3 RESIDENTIAL_2 STOREY 2,Zone Lights Electricity Energy [J] !Hourly
316,1,BLOCK 3 RESIDENTIAL_2 STOREY 3,Zone Lights Electricity Energy [J] !Hourly
317,1,BLOCK 3 RESIDENTIAL_2 STOREY 4,Zone Lights Electricity Energy [J] !Hourly
318,1,BLOCK 3 RESIDENTIAL_2 STOREY 5,Zone Lights Electricity Energy [J] !Hourly
517,1,BLOCK 3 RESIDENTIAL_2 STOREY 0,Zone Electric Equipment Electricity Energy [J] !Hourly
518,1,BLOCK 3 RESIDENTIAL_2 STOREY 1,Zone Electric Equipment Electricity Energy [J] !Hourly
519,1,BLOCK 3 RESIDENTIAL_2 STOREY 2,Zone Electric Equipment Electricity Energy [J] !Hourly
520,1,BLOCK 3 RESIDENTIAL_2 STOREY 3,Zone Electric Equipment Electricity Energy [J] !Hourly
521,1,BLOCK 3 RESIDENTIAL_2 STOREY 4,Zone Electric Equipment Electricity Energy [J] !Hourly
522,1,BLOCK 3 RESIDENTIAL_2 STOREY 5,Zone Electric Equipment Electricity Energy [J] !Hourly
1114,1,BLOCK 3 RESIDENTIAL_2 STOREY 0 IDEAL LOADS AIR SYSTEM,Zone Ideal Loads Supply Air Total Heating Energy [J] !Hourly
1163,1,BLOCK 3 RESIDENTIAL_2 STOREY 0 IDEAL LOADS AIR SYSTEM,Zone Ideal Loads Supply Air Total Cooling Energy [J] !Hourly
1212,1,BLOCK 3 RESIDENTIAL_2 STOREY 1 IDEAL LOADS AIR SYSTEM,Zone Ideal Loads Supply Air Total Heating Energy [J] !Hourly
1213,1,BLOCK 3 RESIDENTIAL_2 STOREY 1 IDEAL LOADS AIR SYSTEM,Zone Ideal Loads Supply Air Total Cooling Energy [J] !Hourly
1214,1,BLOCK 3 RESIDENTIAL_2 STOREY 2 IDEAL LOADS AIR SYSTEM,Zone Ideal Loads Supply Air Total Heating Energy [J] !Hourly
1215,1,BLOCK 3 RESIDENTIAL_2 STOREY 2 IDEAL LOADS AIR SYSTEM,Zone Ideal Loads Supply Air Total Cooling Energy [J] !Hourly
1216,1,BLOCK 3 RESIDENTIAL_2 STOREY 3 IDEAL LOADS AIR SYSTEM,Zone Ideal Loads Supply Air Total Heating Energy [J] !Hourly
1217,1,BLOCK 3 RESIDENTIAL_2 STOREY 3 IDEAL LOADS AIR SYSTEM,Zone Ideal Loads Supply Air Total Cooling Energy [J] !Hourly
1218,1,BLOCK 3 RESIDENTIAL_2 STOREY 4 IDEAL LOADS AIR SYSTEM,Zone Ideal Loads Supply Air Total Heating Energy [J] !Hourly
1219,1,BLOCK 3 RESIDENTIAL_2 STOREY 4 IDEAL LOADS AIR SYSTEM,Zone Ideal Loads Supply Air Total Cooling Energy [J] !Hourly
1220,1,BLOCK 3 RESIDENTIAL_2 STOREY 5 IDEAL LOADS AIR SYSTEM,Zone Ideal Loads Supply Air Total Heating Energy [J] !Hourly
1221,1,BLOCK 3 RESIDENTIAL_2 STOREY 5 IDEAL LOADS AIR SYSTEM,Zone Ideal Loads Supply Air Total Cooling Energy [J] !Hourly
End of Data Dictionary
1,RUN_PERIOD_1,  32.83, 118.80,   8.00,   7.10
2,1, 1, 1, 0, 1, 0.00,60.00,Monday
313,1159396.576566105
314,1159396.576566105
315,1159396.576566105
316,1159396.576566105
317,1159396.576566105
318,1159396.576566105
517,1762282.7963804794
518,1762282.7963804794
519,1762282.7963804794
520,1762282.7963804794
521,1762282.7963804794
522,1762282.7963804794
1114,55090767.48997401
1163,0.0
1212,79409883.09414306
1213,0.0
1214,80353347.40561911
1215,0.0
1216,81017782.32415463
1217,0.0
1218,82143231.6358624
1219,0.0
1220,82581295.76988116
1221,0.0
2,1, 1, 1, 0, 2, 0.00,60.00,Monday
313,1159396.576566105
314,1159396.576566105
315,1159396.576566105
316,1159396.576566105
317,1159396.576566105
318,1159396.576566105
517,1762282.7963804794
518,1762282.7963804794
519,1762282.7963804794
520,1762282.7963804794
521,1762282.7963804794
522,1762282.7963804794
1114,47760963.643291615
1163,0.0
1212,71706840.22188422
1213,0.0
1214,72546623.5931794
1215,0.0
1216,73138641.81913707
1217,0.0
1218,74977939.97768992
1219,0.0
1220,75335645.57362366
1221,0.0
2,1, 1, 1, 0, 3, 0.00,60.00,Monday
313,1159396.576566105
314,1159396.576566105
315,1159396.576566105
316,1159396.576566105
317,1159396.576566105
318,1159396.576566105
517,1762282.7963804794
518,1762282.7963804794
519,1762282.7963804794
520,1762282.7963804794
521,1762282.7963804794
522,1762282.7963804794
1114,43677991.35159992
1163,0.0
1212,67340754.11870423
1213,0.0
1214,68129610.35211405
1215,0.0
1216,68682793.99358633
1217,0.0
1218,71262598.05615664
1219,0.0
1220,71586122.77818932
1221,0.0
2,1, 1, 1, 0, 4, 0.00,60.00,Monday
313,1159396.576566105
314,1159396.576566105
315,1159396.576566105
316,1159396.576566105
317,1159396.576566105
318,1159396.576566105
517,1762282.7963804794
518,1762282.7963804794
519,1762282.7963804794
520,1762282.7963804794
521,1762282.7963804794
522,1762282.7963804794
1114,45556614.55652794
1163,0.0
1212,68801500.5693982
1213,0.0
1214,69569822.21680951
1215,0.0
1216,70105933.63817269
1217,0.0
1218,73369173.8436016
1219,0.0
1220,73668375.84291238
1221,0.0
2,1, 1, 1, 0, 5, 0.00,60.00,Monday
313,1159396.576566105
314,1159396.576566105
315,1159396.576566105
316,1159396.576566105
317,1159396.576566105
318,1159396.576566105
517,1762282.7963804794
518,1762282.7963804794
519,1762282.7963804794
520,1762282.7963804794
521,1762282.7963804794
522,1762282.7963804794
1114,48425500.847475335
1163,0.0
1212,70966379.60548064
1213,0.0
1214,71688268.65678927
1215,0.0
1216,72190069.46602418
1217,0.0
1218,75883295.28011213
1219,0.0
1220,76148686.79590696
1221,0.0
2,1, 1, 1, 0, 6, 0.00,60.00,Monday
313,9275172.61252884
314,9275172.61252884
315,9275172.61252884
316,9275172.61252884
317,9275172.61252884
318,9275172.61252884
517,1762282.7963804794
518,1762282.7963804794
519,1762282.7963804794
520,1762282.7963804794
521,1762282.7963804794
522,1762282.7963804794
1114,43169941.15101599
1163,0.0
1212,64738637.60075234
1213,0.0
1214,65366294.25830689
1215,0.0
1216,65807698.621908985
1217,0.0
1218,69652639.01344126
1219,0.0
1220,69874570.6369
1221,0.0
2,1, 1, 1, 0, 7, 0.00,60.00,Monday
313,5796982.882830524
314,5796982.882830524
315,5796982.882830524
316,5796982.882830524
317,5796982.882830524
318,5796982.882830524
517,7049131.185521917
518,7049131.185521917
519,7049131.185521917
520,7049131.185521917
521,7049131.185521917
522,7049131.185521917
1114,42464927.47673736
1163,0.0
1212,63260726.069038995
1213,0.0
1214,63790944.46922345
1215,0.0
1216,64170331.3705789
1217,0.0
1218,68013608.8114876
1219,0.0
1220,68191348.82363425
1221,0.0
2,1, 1, 1, 0, 8, 0.00,60.00,Monday
313,0.0
314,0.0
315,0.0
316,0.0
317,0.0
318,0.0
517,7049131.185521917
518,7049131.185521917
519,7049131.185521917
520,7049131.185521917
521,7049131.185521917
522,7049131.185521917
1114,0.0
1163,0.0
1212,0.0
1213,0.0
1214,0.0
1215,0.0
1216,0.0
1217,0.0
1218,0.0
1219,0.0
1220,0.0
1221,0.0
2,1, 1, 1, 0, 9, 0.00,60.00,Monday
313,0.0
314,0.0
315,0.0
316,0.0
317,0.0
318,0.0
517,5286848.389141438
518,5286848.389141438
519,5286848.389141438
520,5286848.389141438
521,5286848.389141438
522,5286848.389141438
1114,0.0
1163,0.0
1212,0.0
1213,0.0
1214,0.0
1215,0.0
1216,0.0
1217,0.0
1218,0.0
1219,0.0
1220,0.0
1221,0.0
2,1, 1, 1, 0,10, 0.00,60.00,Monday
313,0.0
314,0.0
315,0.0
316,0.0
317,0.0
318,0.0
517,5286848.389141438
518,5286848.389141438
519,5286848.389141438
520,5286848.389141438
521,5286848.389141438
522,5286848.389141438
1114,0.0
1163,0.0
1212,0.0
1213,0.0
1214,0.0
1215,0.0
1216,0.0
1217,0.0
1218,0.0
1219,0.0
1220,0.0
1221,0.0
2,1, 1, 1, 0,11, 0.00,60.00,Monday
313,0.0
314,0.0
315,0.0
316,0.0
317,0.0
318,0.0
517,7049131.185521917
518,7049131.185521917
519,7049131.185521917
520,7049131.185521917
521,7049131.185521917
522,7049131.185521917
1114,0.0
1163,0.0
1212,0.0
1213,0.0
1214,0.0
1215,0.0
1216,0.0
1217,0.0
1218,0.0
1219,0.0
1220,0.0
1221,0.0
2,1, 1, 1, 0,12, 0.00,60.00,Monday
313,0.0
314,0.0
315,0.0
316,0.0
317,0.0
318,0.0
517,7049131.185521917
518,7049131.185521917
519,7049131.185521917
520,7049131.185521917
521,7049131.185521917
522,7049131.185521917
1114,0.0
1163,0.0
1212,0.0
1213,0.0
1214,0.0
1215,0.0
1216,0.0
1217,0.0
1218,0.0
1219,0.0
1220,0.0
1221,0.0
2,1, 1, 1, 0,13, 0.00,60.00,Monday
313,0.0
314,0.0
315,0.0
316,0.0
317,0.0
318,0.0
517,7049131.185521917
518,7049131.185521917
519,7049131.185521917
520,7049131.185521917
521,7049131.185521917
522,7049131.185521917
1114,0.0
1163,0.0
1212,0.0
1213,0.0
1214,0.0
1215,0.0
1216,0.0
1217,0.0
1218,0.0
1219,0.0
1220,0.0
1221,0.0
2,1, 1, 1, 0,14, 0.00,60.00,Monday
313,0.0
314,0.0
315,0.0
316,0.0
317,0.0
318,0.0
517,4405706.990951198
518,4405706.990951198
519,4405706.990951198
520,4405706.990951198
521,4405706.990951198
522,4405706.990951198
1114,0.0
1163,0.0
1212,0.0
1213,0.0
1214,0.0
1215,0.0
1216,0.0
1217,0.0
1218,0.0
1219,0.0
1220,0.0
1221,0.0
2,1, 1, 1, 0,15, 0.00,60.00,Monday
313,0.0
314,0.0
315,0.0
316,0.0
317,0.0
318,0.0
517,4405706.990951198
518,4405706.990951198
519,4405706.990951198
520,4405706.990951198
521,4405706.990951198
522,4405706.990951198
1114,0.0
1163,0.0
1212,0.0
1213,0.0
1214,0.0
1215,0.0
1216,0.0
1217,0.0
1218,0.0
1219,0.0
1220,0.0
1221,0.0
2,1, 1, 1, 0,16, 0.00,60.00,Monday
313,0.0
314,0.0
315,0.0
316,0.0
317,0.0
318,0.0
517,4405706.990951198
518,4405706.990951198
519,4405706.990951198
520,4405706.990951198
521,4405706.990951198
522,4405706.990951198
1114,0.0
1163,0.0
1212,0.0
1213,0.0
1214,0.0
1215,0.0
1216,0.0
1217,0.0
1218,0.0
1219,0.0
1220,0.0
1221,0.0
2,1, 1, 1, 0,17, 0.00,60.00,Monday
313,0.0
314,0.0
315,0.0
316,0.0
317,0.0
318,0.0
517,5286848.389141438
518,5286848.389141438
519,5286848.389141438
520,5286848.389141438
521,5286848.389141438
522,5286848.389141438
1114,0.0
1163,0.0
1212,0.0
1213,0.0
1214,0.0
1215,0.0
1216,0.0
1217,0.0
1218,0.0
1219,0.0
1220,0.0
1221,0.0
2,1, 1, 1, 0,18, 0.00,60.00,Monday
313,0.0
314,0.0
315,0.0
316,0.0
317,0.0
318,0.0
517,7930272.583712157
518,7930272.583712157
519,7930272.583712157
520,7930272.583712157
521,7930272.583712157
522,7930272.583712157
1114,0.0
1163,0.0
1212,0.0
1213,0.0
1214,0.0
1215,0.0
1216,0.0
1217,0.0
1218,0.0
1219,0.0
1220,0.0
1221,0.0
2,1, 1, 1, 0,19, 0.00,60.00,Monday
313,11593965.765661048
314,11593965.765661048
315,11593965.765661048
316,11593965.765661048
317,11593965.765661048
318,11593965.765661048
517,7930272.583712157
518,7930272.583712157
519,7930272.583712157
520,7930272.583712157
521,7930272.583712157
522,7930272.583712157
1114,0.0
1163,0.0
1212,0.0
1213,0.0
1214,0.0
1215,0.0
1216,0.0
1217,0.0
1218,0.0
1219,0.0
1220,0.0
1221,0.0
2,1, 1, 1, 0,20, 0.00,60.00,Monday
313,11593965.765661048
314,11593965.765661048
315,11593965.765661048
316,11593965.765661048
317,11593965.765661048
318,11593965.765661048
517,7930272.583712157
518,7930272.583712157
519,7930272.583712157
520,7930272.583712157
521,7930272.583712157
522,7930272.583712157
1114,0.0
1163,0.0
1212,0.0
1213,0.0
1214,0.0
1215,0.0
1216,0.0
1217,0.0
1218,0.0
1219,0.0
1220,0.0
1221,0.0
2,1, 1, 1, 0,21, 0.00,60.00,Monday
313,11593965.765661048
314,11593965.765661048
315,11593965.765661048
316,11593965.765661048
317,11593965.765661048
318,11593965.765661048
517,7930272.583712157
518,7930272.583712157
519,7930272.583712157
520,7930272.583712157
521,7930272.583712157
522,7930272.583712157
1114,41931387.88614707
1163,0.0
1212,65516339.88359768
1213,0.0
1214,66886328.23804284
1215,0.0
1216,67838816.43456322
1217,0.0
1218,65415968.63197008
1219,0.0
1220,66192139.99320224
1221,0.0
2,1, 1, 1, 0,22, 0.00,60.00,Monday
313,11593965.765661048
314,11593965.765661048
315,11593965.765661048
316,11593965.765661048
317,11593965.765661048
318,11593965.765661048
517,7930272.583712157
518,7930272.583712157
519,7930272.583712157
520,7930272.583712157
521,7930272.583712157
522,7930272.583712157
1114,37416649.21753356
1163,0.0
1212,64226614.04171461
1213,0.0
1214,65740041.33907646
1215,0.0
1216,66799812.850549415
1217,0.0
1218,65092465.17612873
1219,0.0
1220,65889680.10202485
1221,0.0
2,1, 1, 1, 0,23, 0.00,60.00,Monday
313,1159396.576566105
314,1159396.576566105
315,1159396.576566105
316,1159396.576566105
317,1159396.576566105
318,1159396.576566105
517,1762282.7963804794
518,1762282.7963804794
519,1762282.7963804794
520,1762282.7963804794
521,1762282.7963804794
522,1762282.7963804794
1114,52768184.14291173
1163,0.0
1212,78580450.83360492
1213,0.0
1214,79940536.58233371
1215,0.0
1216,80898374.52065687
1217,0.0
1218,80359672.84110273
1219,0.0
1220,81048044.83564676
1221,0.0
2,1, 1, 1, 0,24, 0.00,60.00,Monday
313,1159396.576566105
314,1159396.576566105
315,1159396.576566105
316,1159396.576566105
317,1159396.576566105
318,1159396.576566105
517,1762282.7963804794
518,1762282.7963804794
519,1762282.7963804794
520,1762282.7963804794
521,1762282.7963804794
522,1762282.7963804794
1114,55495985.39619854
1163,0.0
1212,80491766.634641
1213,0.0
1214,81697207.57557859
1215,0.0
1216,82549557.03657287
1217,0.0
1218,82960833.85145858
1219,0.0
1220,83548073.59463072
1221,0.0
2,2, 1, 2, 0, 1, 0.00,60.00,Tuesday
313,1159396.576566105
314,1159396.576566105
315,1159396.576566105
316,1159396.576566105
317,1159396.576566105
318,1159396.576566105
517,1762282.7963804794
518,1762282.7963804794
519,1762282.7963804794
520,1762282.7963804794
521,1762282.7963804794
522,1762282.7963804794
1114,58717046.477590665
1163,0.0
1212,83337440.686441
1213,0.0
1214,84428329.69023226
1215,0.0
1216,85200528.92377855
1217,0.0
1218,86411803.42668751
1219,0.0
1220,86920694.41035557
1221,0.0
2,2, 1, 2, 0, 2, 0.00,60.00,Tuesday
313,1159396.576566105
314,1159396.576566105
315,1159396.576566105
316,1159396.576566105
317,1159396.576566105
318,1159396.576566105
517,1762282.7963804794
518,1762282.7963804794
519,1762282.7963804794
520,1762282.7963804794
521,1762282.7963804794
522,1762282.7963804794
1114,63038047.715988144
1163,0.0
1212,87494695.42304543
1213,0.0
1214,88455219.58900598
1215,0.0
1216,89135790.49123713
1217,0.0
1218,91046784.46545312
1219,0.0
1220,91473258.60555038
1221,0.0
2,2, 1, 2, 0, 3, 0.00,60.00,Tuesday
313,1159396.576566105
314,1159396.576566105
315,1159396.576566105
316,1159396.576566105
317,1159396.576566105
318,1159396.576566105
517,1762282.7963804794
518,1762282.7963804794
519,1762282.7963804794
520,1762282.7963804794
521,1762282.7963804794
522,1762282.7963804794
1114,67702852.64058337
1163,0.0
1212,92039157.41426384
1213,0.0
1214,92812252.15053174
1215,0.0
1216,93355352.09359738
1217,0.0
1218,95909377.24830207
1219,0.0
1220,96222276.4411631
1221,0.0
2,2, 1, 2, 0, 4, 0.00,60.00,Tuesday
313,1159396.576566105
314,1159396.576566105
315,1159396.576566105
316,1159396.576566105
317,1159396.576566105
318,1159396.576566105
517,1762282.7963804794
518,1762282.7963804794
519,1762282.7963804794
520,1762282.7963804794
521,1762282.7963804794
522,1762282.7963804794
1114,72013851.08227628
1163,0.0
1212,96477351.97741903
1213,0.0
1214,97141737.9229618
1215,0.0
1216,97605157.13183367
1217,0.0
1218,100914046.98591574
1219,0.0
1220,101156541.88639146
1221,0.0
2,2, 1, 2, 0, 5, 0.00,60.00,Tuesday
313,1159396.576566105
314,1159396.576566105
315,1159396.576566105
316,1159396.576566105
317,1159396.576566105
318,1159396.576566105
517,1762282.7963804794
518,1762282.7963804794
519,1762282.7963804794
520,1762282.7963804794
521,1762282.7963804794
522,1762282.7963804794
1114,75624555.71723922
1163,0.0
1212,100412172.02702156
1213,0.0
1214,101012496.31421886
1215,0.0
1216,101432173.23983274
1217,0.0
1218,105586795.42222409
1219,0.0
1220,105793991.69692951
1221,0.0
2,2, 1, 2, 0, 6, 0.00,60.00,Tuesday
313,9275172.61252884
314,9275172.61252884
315,9275172.61252884
316,9275172.61252884
317,9275172.61252884
318,9275172.61252884
517,1762282.7963804794
518,1762282.7963804794
519,1762282.7963804794
520,1762282.7963804794
521,1762282.7963804794
522,1762282.7963804794
1114,74270048.72448875
1163,0.0
1212,99410409.19753373
1213,0.0
1214,99945154.9177437
1215,0.0
1216,100320535.42232081
1217,0.0
1218,105320515.99399427
1219,0.0
1220,105500911.20292456
1221,0.0
2,2, 1, 2, 0, 7, 0.00,60.00,Tuesday
313,5796982.882830524
314,5796982.882830524
315,5796982.882830524
316,5796982.882830524
317,5796982.882830524
318,5796982.882830524
517,7049131.185521917
518,7049131.185521917
519,7049131.185521917
520,7049131.185521917
521,7049131.185521917
522,7049131.185521917
1114,77108387.67941211
1163,0.0
1212,103007668.82998592
1213,0.0
1214,103569945.33433762
1215,0.0
1216,103973369.02535288
1217,0.0
1218,109858320.72073153
1219,0.0
1220,110068863.1161988
1221,0.0
2,2, 1, 2, 0, 8, 0.00,60.00,Tuesday
313,0.0
314,0.0
315,0.0
316,0.0
317,0.0
318,0.0
517,7049131.185521917
518,7049131.185521917
519,7049131.185521917
520,7049131.185521917
521,7049131.185521917
522,7049131.185521917
1114,0.0
1163,0.0
1212,0.0
1213,0.0
1214,0.0
1215,0.0
1216,0.0
1217,0.0
1218,0.0
1219,0.0
1220,0.0
1221,0.0
2,2, 1, 2, 0, 9, 0.00,60.00,Tuesday
313,0.0
314,0.0
315,0.0
316,0.0
317,0.0
318,0.0
517,5286848.389141438
518,5286848.389141438
519,5286848.389141438
520,5286848.389141438
521,5286848.389141438
522,5286848.389141438
1114,0.0
1163,0.0
1212,0.0
1213,0.0
1214,0.0
1215,0.0
1216,0.0
1217,0.0
1218,0.0
1219,0.0
1220,0.0
1221,0.0
2,2, 1, 2, 0,10, 0.00,60.00,Tuesday
313,0.0
314,0.0
315,0.0
316,0.0
317,0.0
318,0.0
517,5286848.389141438
518,5286848.389141438
519,5286848.389141438
520,5286848.389141438
521,5286848.389141438
522,5286848.389141438
1114,0.0
1163,0.0
1212,0.0
1213,0.0
1214,0.0
1215,0.0
1216,0.0
1217,0.0
1218,0.0
1219,0.0
1220,0.0
1221,0.0
2,2, 1, 2, 0,11, 0.00,60.00,Tuesday
313,0.0
314,0.0
315,0.0
316,0.0
317,0.0
318,0.0
517,7049131.185521917
518,7049131.185521917
519,7049131.185521917
520,7049131.185521917
521,7049131.185521917
522,7049131.185521917
1114,0.0
1163,0.0
1212,0.0
1213,0.0
1214,0.0
1215,0.0
1216,0.0
1217,0.0
1218,0.0
1219,0.0
1220,0.0
1221,0.0
2,2, 1, 2, 0,12, 0.00,60.00,Tuesday
313,0.0
314,0.0
315,0.0
316,0.0
317,0.0
318,0.0
517,7049131.185521917
518,7049131.185521917
519,7049131.185521917
520,7049131.185521917
521,7049131.185521917
522,7049131.185521917
1114,0.0
1163,0.0
1212,0.0
1213,0.0
1214,0.0
1215,0.0
1216,0.0
1217,0.0
1218,0.0
1219,0.0
1220,0.0
1221,0.0
2,2, 1, 2, 0,13, 0.00,60.00,Tuesday
313,0.0
314,0.0
315,0.0
316,0.0
317,0.0
318,0.0
517,7049131.185521917
518,7049131.185521917
519,7049131.185521917
520,7049131.185521917
521,7049131.185521917
522,7049131.185521917
1114,0.0
1163,0.0
1212,0.0
1213,0.0
1214,0.0
1215,0.0
1216,0.0
1217,0.0
1218,0.0
1219,0.0
1220,0.0
1221,0.0
2,2, 1, 2, 0,14, 0.00,60.00,Tuesday
313,0.0
314,0.0
315,0.0
316,0.0
317,0.0
318,0.0
517,4405706.990951198
518,4405706.990951198
519,4405706.990951198
520,4405706.990951198
521,4405706.990951198
522,4405706.990951198
1114,0.0
1163,0.0
1212,0.0
1213,0.0
1214,0.0
1215,0.0
1216,0.0
1217,0.0
1218,0.0
1219,0.0
1220,0.0
1221,0.0
2,2, 1, 2, 0,15, 0.00,60.00,Tuesday
313,0.0
314,0.0
315,0.0
316,0.0
317,0.0
318,0.0
517,4405706.990951198
518,4405706.990951198
519,4405706.990951198
520,4405706.990951198
521,4405706.990951198
522,4405706.990951198
1114,0.0
1163,0.0
1212,0.0
1213,0.0
1214,0.0
1215,0.0
1216,0.0
1217,0.0
1218,0.0
1219,0.0
1220,0.0
1221,0.0
2,2, 1, 2, 0,16, 0.00,60.00,Tuesday
313,0.0
314,0.0
315,0.0
316,0.0
317,0.0
318,0.0
517,4405706.990951198
518,4405706.990951198
519,4405706.990951198
520,4405706.990951198
521,4405706.990951198
522,4405706.990951198
1114,0.0
1163,0.0
1212,0.0
1213,0.0
1214,0.0
1215,0.0
1216,0.0
1217,0.0
1218,0.0
1219,0.0
1220,0.0
1221,0.0
2,2, 1, 2, 0,17, 0.00,60.00,Tuesday
313,0.0
314,0.0
315,0.0
316,0.0
317,0.0
318,0.0
517,5286848.389141438
518,5286848.389141438
519,5286848.389141438
520,5286848.389141438
521,5286848.389141438
522,5286848.389141438
1114,0.0
1163,0.0
1212,0.0
1213,0.0
1214,0.0
1215,0.0
1216,0.0
1217,0.0
1218,0.0
1219,0.0
1220,0.0
1221,0.0
2,2, 1, 2, 0,18, 0.00,60.00,Tuesday
313,0.0
314,0.0
315,0.0
316,0.0
317,0.0
318,0.0
517,7930272.583712157
518,7930272.583712157
519,7930272.583712157
520,7930272.583712157
521,7930272.583712157
522,7930272.583712157
1114,0.0
1163,0.0
1212,0.0
1213,0.0
1214,0.0
1215,0.0
1216,0.0
1217,0.0
1218,0.0
1219,0.0
1220,0.0
1221,0.0
2,2, 1, 2, 0,19, 0.00,60.00,Tuesday
313,11593965.765661048
314,11593965.765661048
315,11593965.765661048
316,11593965.765661048
317,11593965.765661048
318,11593965.765661048
517,7930272.583712157
518,7930272.583712157
519,7930272.583712157
520,7930272.583712157
521,7930272.583712157
522,7930272.583712157
1114,0.0
1163,0.0
1212,0.0
1213,0.0
1214,0.0
1215,0.0
1216,0.0
1217,0.0
1218,0.0
1219,0.0
1220,0.0
1221,0.0
2,2, 1, 2, 0,20, 0.00,60.00,Tuesday
313,11593965.765661048
314,11593965.765661048
315,11593965.765661048
316,11593965.765661048
317,11593965.765661048
318,11593965.765661048
517,7930272.583712157
518,7930272.583712157
519,7930272.583712157
520,7930272.583712157
521,7930272.583712157
522,7930272.583712157
1114,0.0
1163,0.0
1212,0.0
1213,0.0
1214,0.0
1215,0.0
1216,0.0
1217,0.0
1218,0.0
1219,0.0
1220,0.0
1221,0.0
2,2, 1, 2, 0,21, 0.00,60.00,Tuesday
313,11593965.765661048
314,11593965.765661048
315,11593965.765661048
316,11593965.765661048
317,11593965.765661048
318,11593965.765661048
517,7930272.583712157
518,7930272.583712157
519,7930272.583712157
520,7930272.583712157
521,7930272.583712157
522,7930272.583712157
1114,70073695.83994898
1163,0.0
1212,119350832.17439674
1213,0.0
1214,121406877.33238992
1215,0.0
1216,122924771.20569292
1217,0.0
1218,113445287.29399198
1219,0.0
1220,114492362.11953178
1221,0.0
2,2, 1, 2, 0,22, 0.00,60.00,Tuesday
313,11593965.765661048
314,11593965.765661048
315,11593965.765661048
316,11593965.765661048
317,11593965.765661048
318,11593965.765661048
517,7930272.583712157
518,7930272.583712157
519,7930272.583712157
520,7930272.583712157
521,7930272.583712157
522,7930272.583712157
1114,46999090.35245008
1163,0.0
1212,82398620.51712742
1213,0.0
1214,83617174.47975287
1215,0.0
1216,84533192.00633778
1217,0.0
1218,80423911.80714601
1219,0.0
1220,81176822.22334093
1221,0.0
2,2, 1, 2, 0,23, 0.00,60.00,Tuesday
313,1159396.576566105
314,1159396.576566105
315,1159396.576566105
316,1159396.576566105
317,1159396.576566105
318,1159396.576566105
517,1762282.7963804794
518,1762282.7963804794
519,1762282.7963804794
520,1762282.7963804794
521,1762282.7963804794
522,1762282.7963804794
1114,60210420.24095814
1163,0.0
1212,92737718.96884863
1213,0.0
1214,93857418.81582415
1215,0.0
1216,94696758.28980438
1217,0.0
1218,92725202.62515602
1219,0.0
1220,93384609.10177547
1221,0.0
2,2, 1, 2, 0,24, 0.00,60.00,Tuesday
313,1159396.576566105
314,1159396.576566105
315,1159396.576566105
316,1159396.576566105
317,1159396.576566105
318,1159396.576566105
517,1762282.7963804794
518,1762282.7963804794
519,1762282.7963804794
520,1762282.7963804794
521,1762282.7963804794
522,1762282.7963804794
1114,60724361.72500718
1163,0.0
1212,91413064.32810234
1213,0.0
1214,92439757.44789472
1215,0.0
1216,93206984.21921663
1217,0.0
1218,92961779.86140758
1219,0.0
1220,93538266.23036735
1221,0.0
2,3, 1, 3, 0, 1, 0.00,60.00,Wednesday
313,1159396.576566105
314,1159396.576566105
315,1159396.576566105
316,1159396.576566105
317,1159396.576566105
318,1159396.576566105
517,1762282.7963804794
518,1762282.7963804794
519,1762282.7963804794
520,1762282.7963804794
521,1762282.7963804794
522,1762282.7963804794
1114,59865315.46491989
1163,0.0
1212,89239922.86668105
1213,0.0
1214,90174350.57953887
1215,0.0
1216,90871816.41904792
1217,0.0
1218,92027829.69013464
1219,0.0
1220,92526462.09368224
1221,0.0
2,3, 1, 3, 0, 2, 0.00,60.00,Wednesday
313,1159396.576566105
314,1159396.576566105
315,1159396.576566105
316,1159396.576566105
317,1159396.576566105
318,1159396.576566105
517,1762282.7963804794
518,1762282.7963804794
519,1762282.7963804794
520,1762282.7963804794
521,1762282.7963804794
522,1762282.7963804794
1114,59818990.46757646
1163,0.0
1212,88161165.63530478
1213,0.0
1214,88961696.27442467
1215,0.0
1216,89556217.61674798
1217,0.0
1218,91809319.37728295
1219,0.0
1220,92211385.6668928
1221,0.0
2,3, 1, 3, 0, 3, 0.00,60.00,Wednesday
313,1159396.576566105
314,1159396.576566105
315,1159396.576566105
316,1159396.576566105
317,1159396.576566105
318,1159396.576566105
517,1762282.7963804794
518,1762282.7963804794
519,1762282.7963804794
520,1762282.7963804794
521,1762282.7963804794
522,1762282.7963804794
1114,58991990.384925336
1163,0.0
1212,86346163.83296274
1213,0.0
1214,86963917.70545201
1215,0.0
1216,87426671.32793505
1217,0.0
1218,90508296.58370562
1219,0.0
1220,90794524.89445916
1221,0.0
2,3, 1, 3, 0, 4, 0.00,60.00,Wednesday
313,1159396.576566105
314,1159396.576566105
315,1159396.576566105
316,1159396.576566105
317,1159396.576566105
318,1159396.576566105
517,1762282.7963804794
518,1762282.7963804794
519,1762282.7963804794
520,1762282.7963804794
521,1762282.7963804794
522,1762282.7963804794
1114,59055578.18825652
1163,0.0
1212,85780261.75260803
1213,0.0
1214,86405840.53368494
1215,0.0
1216,86873611.7522283
1217,0.0
1218,90730781.38508338
1219,0.0
1220,91002328.77668999
1221,0.0
2,3, 1, 3, 0, 5, 0.00,60.00,Wednesday
313,1159396.576566105
314,1159396.576566105
315,1159396.576566105
316,1159396.576566105
317,1159396.576566105
318,1159396.576566105
517,1762282.7963804794
518,1762282.7963804794
519,1762282.7963804794
520,1762282.7963804794
521,1762282.7963804794
522,1762282.7963804794
1114,59113933.24502114
1163,0.0
1212,85108627.56490916
1213,0.0
1214,85641882.33811656
1215,0.0
1216,86041650.158243
1217,0.0
1218,90508550.59280838
1219,0.0
1220,90724447.27507418
1221,0.0
2,3, 1, 3, 0, 6, 0.00,60.00,Wednesday
313,9275172.61252884
314,9275172.61252884
315,9275172.61252884
316,9275172.61252884
317,9275172.61252884
318,9275172.61252884
517,1762282.7963804794
518,1762282.7963804794
519,1762282.7963804794
520,1762282.7963804794
521,1762282.7963804794
522,1762282.7963804794
1114,53810932.22382982
1163,0.0
1212,78927860.49249262
1213,0.0
1214,79329118.73520055
1215,0.0
1216,79629663.12367515
1217,0.0
1218,84491624.4659093
1219,0.0
1220,84632163.09158768
1221,0.0
2,3, 1, 3, 0, 7, 0.00,60.00,Wednesday
313,5796982.882830524
314,5796982.882830524
315,5796982.882830524
316,5796982.882830524
317,5796982.882830524
318,5796982.882830524
517,7049131.185521917
518,7049131.185521917
519,7049131.185521917
520,7049131.185521917
521,7049131.185521917
522,7049131.185521917
1114,54134393.38030648
1163,0.0
1212,78922546.9703952
1213,0.0
1214,79389864.85621539
1215,0.0
1216,79741275.1160138
1217,0.0
1218,85009399.48029706
1219,0.0
1220,85184339.51034242
1221,0.0
2,3, 1, 3, 0, 8, 0.00,60.00,Wednesday
313,0.0
314,0.0
315,0.0
316,0.0
317,0.0
318,0.0
517,7049131.185521917
518,7049131.185521917
519,7049131.185521917
520,7049131.185521917
521,7049131.185521917
522,7049131.185521917
1114,0.0
1163,0.0
1212,0.0
1213,0.0
1214,0.0
1215,0.0
1216,0.0
1217,0.0
1218,0.0
1219,0.0
1220,0.0
1221,0.0
2,3, 1, 3, 0, 9, 0.00,60.00,Wednesday
313,0.0
314,0.0
315,0.0
316,0.0
317,0.0
318,0.0
517,5286848.389141438
518,5286848.389141438
519,5286848.389141438
520,5286848.389141438
521,5286848.389141438
522,5286848.389141438
1114,0.0
1163,0.0
1212,0.0
1213,0.0
1214,0.0
1215,0.0
1216,0.0
1217,0.0
1218,0.0
1219,0.0
1220,0.0
1221,0.0
2,3, 1, 3, 0,10, 0.00,60.00,Wednesday
313,0.0
314,0.0
315,0.0
316,0.0
317,0.0
318,0.0
517,5286848.389141438
518,5286848.389141438
519,5286848.389141438
520,5286848.389141438
521,5286848.389141438
522,5286848.389141438
1114,0.0
1163,0.0
1212,0.0
1213,0.0
1214,0.0
1215,0.0
1216,0.0
1217,0.0
1218,0.0
1219,0.0
1220,0.0
1221,0.0
2,3, 1, 3, 0,11, 0.00,60.00,Wednesday
313,0.0
314,0.0
315,0.0
316,0.0
317,0.0
318,0.0
517,7049131.185521917
518,7049131.185521917
519,7049131.185521917
520,7049131.185521917
521,7049131.185521917
522,7049131.185521917
1114,0.0
1163,0.0
1212,0.0
1213,0.0
1214,0.0
1215,0.0
1216,0.0
1217,0.0
1218,0.0
1219,0.0
1220,0.0
1221,0.0
2,3, 1, 3, 0,12, 0.00,60.00,Wednesday
313,0.0
314,0.0
315,0.0
316,0.0
317,0.0
318,0.0
517,7049131.185521917
518,7049131.185521917
519,7049131.185521917
520,7049131.185521917
521,7049131.185521917
522,7049131.185521917
1114,0.0
1163,0.0
1212,0.0
1213,0.0
1214,0.0
1215,0.0
1216,0.0
1217,0.0
1218,0.0
1219,0.0
1220,0.0
1221,0.0
2,3, 1, 3, 0,13, 0.00,60.00,Wednesday
313,0.0
314,0.0
315,0.0
316,0.0
317,0.0
318,0.0
517,7049131.185521917
518,7049131.185521917
519,7049131.185521917
520,7049131.185521917
521,7049131.185521917
522,7049131.185521917
1114,0.0
1163,0.0
1212,0.0
1213,0.0
1214,0.0
1215,0.0
1216,0.0
1217,0.0
1218,0.0
1219,0.0
1220,0.0
1221,0.0
2,3, 1, 3, 0,14, 0.00,60.00,Wednesday
313,0.0
314,0.0
315,0.0
316,0.0
317,0.0
318,0.0
517,4405706.990951198
518,4405706.990951198
519,4405706.990951198
520,4405706.990951198
521,4405706.990951198
522,4405706.990951198
1114,0.0
1163,0.0
1212,0.0
1213,0.0
1214,0.0
1215,0.0
1216,0.0
1217,0.0
1218,0.0
1219,0.0
1220,0.0
1221,0.0
2,3, 1, 3, 0,15, 0.00,60.00,Wednesday
313,0.0
314,0.0
315,0.0
316,0.0
317,0.0
318,0.0
517,4405706.990951198
518,4405706.990951198
519,4405706.990951198
520,4405706.990951198
521,4405706.990951198
522,4405706.990951198
1114,0.0
1163,0.0
1212,0.0
1213,0.0
1214,0.0
1215,0.0
1216,0.0
1217,0.0
1218,0.0
1219,0.0
1220,0.0
1221,0.0
2,3, 1, 3, 0,16, 0.00,60.00,Wednesday
313,0.0
314,0.0
315,0.0
316,0.0
317,0.0
318,0.0
517,4405706.990951198
518,4405706.990951198
519,4405706.990951198
520,4405706.990951198
521,4405706.990951198
522,4405706.990951198
1114,0.0
1163,0.0
1212,0.0
1213,0.0
1214,0.0
1215,0.0
1216,0.0
1217,0.0
1218,0.0
1219,0.0
1220,0.0
1221,0.0
2,3, 1, 3, 0,17, 0.00,60.00,Wednesday
313,0.0
314,0.0
315,0.0
316,0.0
317,0.0
318,0.0
517,5286848.389141438
518,5286848.389141438
519,5286848.389141438
520,5286848.389141438
521,5286848.389141438
522,5286848.389141438
1114,0.0
1163,0.0
1212,0.0
1213,0.0
1214,0.0
1215,0.0
1216,0.0
1217,0.0
1218,0.0
1219,0.0
1220,0.0
1221,0.0
2,3, 1, 3, 0,18, 0.00,60.00,Wednesday
313,0.0
314,0.0
315,0.0
316,0.0
317,0.0
318,0.0
517,7930272.583712157
518,7930272.583712157
519,7930272.583712157
520,7930272.583712157
521,7930272.583712157
522,7930272.583712157
1114,0.0
1163,0.0
1212,0.0
1213,0.0
1214,0.0
1215,0.0
1216,0.0
1217,0.0
1218,0.0
1219,0.0
1220,0.0
1221,0.0